TITLE = "SU2 Simulation"
VARIABLES = "Iteration","CL","CD","CSF","CMx","CMy","CMz","CFx","CFy","CFz","CL/CD","AoA","Custom_ObjFunc","Res_Flow[0]","Res_Flow[1]","Res_Flow[2]","Res_Flow[3]","Res_Flow[4]","Linear_Solver_Iterations","CFL_Number","Time(min)"
ZONE T= "Convergence history"
           0, 1.16380164e-01, 1.90434699e-01, 0.00000000e+00, 0.00000000e+00, 0.00000000e+00, 2.90185833e-02, 1.87850561e-01, 1.20506780e-01, 0.00000000e+00, 6.11128981e-01, 1.25000000e+00, 0.00000000e+00, -1.05052184e+00, 1.37271423e+00, -2.88429479e-01, 4.44022616e+00, 0.00000000e+00, 4.0000000000, 1.0000000000, 0.0002482897
